                         Program Version 4.2.1 -  RELEASE  -
|  1> ! B97-3c TightSCF Grid3 NOSOSCF
|  2> %maxcore 3000 #memory in MB
|  3> %pal
|  4>     nprocs 4
|  5> end
|  6> * xyzfile 0 1 struc.xyz
|  7>
|  8>                          ****END OF INPUT****

CARTESIAN COORDINATES (ANGSTROEM)
---------------------------------
  C      0.590548    1.437715   -0.512024
  H     -0.344397    1.997358   -0.555829
  H      0.703646    0.905509   -1.454723
  H      1.405786    2.155942   -0.440925
  C      0.590548    0.483546    0.676489
  H      1.520768   -0.089762    0.686162
  H      0.575510    1.063339    1.600853
  C     -0.590548   -0.483546    0.676489
  H     -1.520768    0.089762    0.686162
  H     -0.575510   -1.063339    1.600853
  C     -0.590548   -1.437715   -0.512024
  H      0.344397   -1.997358   -0.555829
  H     -1.405786   -2.155942   -0.440925
  H     -0.703646   -0.905509   -1.454723

 Total Charge           Charge          ....    0
 Multiplicity           Mult            ....    1
 Number of Electrons    NEL             ....   34
 Basis Dimension        Dim             ....  106

ORBITAL ENERGIES
----------------

  NO   OCC          E(Eh)            E(eV)
   0   2.0000      -9.880815      -268.8707
   1   2.0000      -9.880706      -268.8677
   2   2.0000      -9.873814      -268.6801
   3   2.0000      -9.873813      -268.6801
   4   2.0000      -0.724199       -19.7065
   5   2.0000      -0.652677       -17.7602
   6   2.0000      -0.578792       -15.7497
   7   2.0000      -0.509303       -13.8588
   8   2.0000      -0.409335       -11.1386
   9   2.0000      -0.407201       -11.0805
  10   2.0000      -0.370422       -10.0797
  11   2.0000      -0.340153        -9.2560
  12   2.0000      -0.337211        -9.1760
  13   2.0000      -0.316541        -8.6135
  14   2.0000      -0.283616        -7.7176
  15   2.0000      -0.281963        -7.6726
  16   2.0000      -0.281567        -7.6618
  17   0.0000       0.029937         0.8146
  18   0.0000       0.061344         1.6692
  19   0.0000       0.067318         1.8318
  20   0.0000       0.073433         1.9982
  21   0.0000       0.094893         2.5822

MULLIKEN ATOMIC CHARGES
-----------------------
   0 C :   -0.524093
   1 H :    0.154860
   2 H :    0.169114
   3 H :    0.169349
   4 C :   -0.280004
   5 H :    0.147691
   6 H :    0.163084
   7 C :   -0.280004
   8 H :    0.147691
   9 H :    0.163084
  10 C :   -0.524093
  11 H :    0.154860
  12 H :    0.169349
  13 H :    0.169114
Sum of atomic charges:   -0.0000000

LOEWDIN ATOMIC CHARGES
----------------------
   0 C :   -0.434942
   1 H :    0.150362
   2 H :    0.150181
   3 H :    0.151249
   4 C :   -0.314474
   5 H :    0.148146
   6 H :    0.149478
   7 C :   -0.314474
   8 H :    0.148146
   9 H :    0.149478
  10 C :   -0.434942
  11 H :    0.150362
  12 H :    0.151249
  13 H :    0.150181

  Mayer bond orders larger than 0.100000
B(  0-C ,  1-H ) :   0.9587 B(  0-C ,  2-H ) :   0.9718 B(  0-C ,  3-H ) :   0.9586
B(  0-C ,  4-C ) :   0.9474 B(  4-C ,  5-H ) :   0.9626 B(  4-C ,  6-H ) :   0.9569
B(  4-C ,  7-C ) :   0.9430 B(  7-C ,  8-H ) :   0.9626 B(  7-C ,  9-H ) :   0.9569
B(  7-C , 10-C ) :   0.9474 B( 10-C , 11-H ) :   0.9587 B( 10-C , 12-H ) :   0.9586
B( 10-C , 13-H ) :   0.9718

Dispersion correction           -0.020604635
FINAL SINGLE POINT ENERGY      -158.374598097121

DIPOLE MOMENT
-------------
                                X             Y             Z
Electronic contribution:      0.00000       0.00000       0.93030
Nuclear contribution   :     -0.00000      -0.00000      -0.89277
                        -----------------------------------------
Total Dipole Moment    :      0.00000       0.00000       0.03754
                        -----------------------------------------
Magnitude (a.u.)       :      0.03754
Magnitude (Debye)      :      0.09541

Rotational constants in cm-1:     0.440728     0.162187     0.137484
Rotational constants in MHz : 13212.687709  4862.244726  4121.676340

                             ****ORCA TERMINATED NORMALLY****
TOTAL RUN TIME: 0 days 0 hours 0 minutes 7 seconds 230 msec
