                         Program Version 4.2.1 -  RELEASE  -
|  1> ! DLPNO-DSD-BLYP D3 RIJCOSX def2-TZVPP def2/J def2-TZVPP/C grid3 gridx3 TightSCF NOSOSCF
|  2> %maxcore 5500 #memory in MB
|  3> %pal
|  4>     nprocs 4
|  5> end
|  6> %scf
|  7>    Guess MORead
|  8>    MOInp "01_B97-3c.gbw"
|  9> end
| 10> * xyzfile 0 1 struc.xyz
| 11>
| 12>                          ****END OF INPUT****

CARTESIAN COORDINATES (ANGSTROEM)
---------------------------------
  C      0.590548    1.437715   -0.512024
  H     -0.344397    1.997358   -0.555829
  H      0.703646    0.905509   -1.454723
  H      1.405786    2.155942   -0.440925
  C      0.590548    0.483546    0.676489
  H      1.520768   -0.089762    0.686162
  H      0.575510    1.063339    1.600853
  C     -0.590548   -0.483546    0.676489
  H     -1.520768    0.089762    0.686162
  H     -0.575510   -1.063339    1.600853
  C     -0.590548   -1.437715   -0.512024
  H      0.344397   -1.997358   -0.555829
  H     -1.405786   -2.155942   -0.440925
  H     -0.703646   -0.905509   -1.454723

 Total Charge           Charge          ....    0
 Multiplicity           Mult            ....    1
 Number of Electrons    NEL             ....   34
 Basis Dimension        Dim             ....  264

ORBITAL ENERGIES
----------------

  NO   OCC          E(Eh)            E(eV)
   0   2.0000     -10.810714      -294.1745
   1   2.0000     -10.810242      -294.1616
   2   2.0000     -10.803815      -293.9867
   3   2.0000     -10.803814      -293.9867
   4   2.0000      -0.967507       -26.3272
   5   2.0000      -0.879061       -23.9205
   6   2.0000      -0.785905       -21.3856
   7   2.0000      -0.697468       -18.9791
   8   2.0000      -0.563278       -15.3276
   9   2.0000      -0.559898       -15.2356
  10   2.0000      -0.515378       -14.0242
  11   2.0000      -0.477864       -13.0033
  12   2.0000      -0.476410       -12.9638
  13   2.0000      -0.449972       -12.2444
  14   2.0000      -0.411522       -11.1981
  15   2.0000      -0.407970       -11.1014
  16   2.0000      -0.407232       -11.0813
  17   0.0000       0.097993         2.6665
  18   0.0000       0.130465         3.5501
  19   0.0000       0.136002         3.7008
  20   0.0000       0.142636         3.8813
  21   0.0000       0.171277         4.6607

MULLIKEN ATOMIC CHARGES
-----------------------
   0 C :   -0.241554
   1 H :    0.066044
   2 H :    0.068149
   3 H :    0.075894
   4 C :   -0.067366
   5 H :    0.042146
   6 H :    0.056832
   7 C :   -0.066880
   8 H :    0.041476
   9 H :    0.056640
  10 C :   -0.242022
  11 H :    0.066041
  12 H :    0.076071
  13 H :    0.068529
Sum of atomic charges:    0.0000000

LOEWDIN ATOMIC CHARGES
----------------------
   0 C :    0.005377
   1 H :    0.006199
   2 H :    0.002743
   3 H :    0.004007
   4 C :   -0.038248
   5 H :    0.010157
   6 H :    0.009766
   7 C :   -0.038241
   8 H :    0.010147
   9 H :    0.009764
  10 C :    0.005374
  11 H :    0.006196
  12 H :    0.004010
  13 H :    0.002750

  Mayer bond orders larger than 0.100000
B(  0-C ,  1-H ) :   0.9973 B(  0-C ,  2-H ) :   1.0007 B(  0-C ,  3-H ) :   1.0022
B(  0-C ,  4-C ) :   0.9346 B(  4-C ,  5-H ) :   1.0089 B(  4-C ,  6-H ) :   1.0084
B(  4-C ,  7-C ) :   0.9459 B(  7-C ,  8-H ) :   1.0088 B(  7-C ,  9-H ) :   1.0083
B(  7-C , 10-C ) :   0.9345 B( 10-C , 11-H ) :   0.9974 B( 10-C , 12-H ) :   1.0024
B( 10-C , 13-H ) :   1.0006

MP2 TOTAL ENERGY:     -158.274246961 Eh
Dispersion correction           -0.005129233
FINAL SINGLE POINT ENERGY      -158.279376194157

DIPOLE MOMENT
-------------
                                X             Y             Z
Electronic contribution:     -0.00001      -0.00000       0.93046
Nuclear contribution   :     -0.00000      -0.00000      -0.89277
                        -----------------------------------------
Total Dipole Moment    :     -0.00001      -0.00000       0.03769
                        -----------------------------------------
Magnitude (a.u.)       :      0.03769
Magnitude (Debye)      :      0.09581

Rotational constants in cm-1:     0.440728     0.162187     0.137484
Rotational constants in MHz : 13212.687709  4862.244726  4121.676340

                             ****ORCA TERMINATED NORMALLY****
TOTAL RUN TIME: 0 days 0 hours 0 minutes 35 seconds 706 msec
