                         Program Version 4.2.1 -  RELEASE  -
|  1> !TightPNO DLPNO-DSD-BLYP D3 RIJCOSX def2-QZVPP def2/J def2-QZVPP/C grid5 gridx7 TightSCF NOSOSCF
|  2> %maxcore 5500 #memory in MB
|  3> %pal
|  4>     nprocs 4
|  5> end
|  6> %scf
|  7>    Guess MORead
|  8>    MOInp "02_DLPNO-DSD-BLYP.gbw"
|  9> end
| 10> * xyzfile 0 1 struc.xyz
| 11>
| 12>                          ****END OF INPUT****

CARTESIAN COORDINATES (ANGSTROEM)
---------------------------------
  C      0.590548    1.437715   -0.512024
  H     -0.344397    1.997358   -0.555829
  H      0.703646    0.905509   -1.454723
  H      1.405786    2.155942   -0.440925
  C      0.590548    0.483546    0.676489
  H      1.520768   -0.089762    0.686162
  H      0.575510    1.063339    1.600853
  C     -0.590548   -0.483546    0.676489
  H     -1.520768    0.089762    0.686162
  H     -0.575510   -1.063339    1.600853
  C     -0.590548   -1.437715   -0.512024
  H      0.344397   -1.997358   -0.555829
  H     -1.405786   -2.155942   -0.440925
  H     -0.703646   -0.905509   -1.454723

 Total Charge           Charge          ....    0
 Multiplicity           Mult            ....    1
 Number of Electrons    NEL             ....   34
 Basis Dimension        Dim             ....  528

ORBITAL ENERGIES
----------------

  NO   OCC          E(Eh)            E(eV)
   0   2.0000     -10.811406      -294.1933
   1   2.0000     -10.810927      -294.1803
   2   2.0000     -10.804333      -294.0008
   3   2.0000     -10.804331      -294.0008
   4   2.0000      -0.967470       -26.3262
   5   2.0000      -0.879049       -23.9201
   6   2.0000      -0.785918       -21.3859
   7   2.0000      -0.697497       -18.9799
   8   2.0000      -0.563343       -15.3293
   9   2.0000      -0.560024       -15.2390
  10   2.0000      -0.515383       -14.0243
  11   2.0000      -0.477890       -13.0040
  12   2.0000      -0.476560       -12.9679
  13   2.0000      -0.450015       -12.2455
  14   2.0000      -0.411685       -11.2025
  15   2.0000      -0.408073       -11.1042
  16   2.0000      -0.407333       -11.0841
  17   0.0000       0.075694         2.0597
  18   0.0000       0.093007         2.5309
  19   0.0000       0.096288         2.6201
  20   0.0000       0.099613         2.7106
  21   0.0000       0.131200         3.5701

MULLIKEN ATOMIC CHARGES
-----------------------
   0 C :   -0.159104
   1 H :    0.052399
   2 H :    0.046865
   3 H :    0.052371
   4 C :   -0.067102
   5 H :    0.034758
   6 H :    0.039809
   7 C :   -0.066156
   8 H :    0.034235
   9 H :    0.039559
  10 C :   -0.159847
  11 H :    0.052337
  12 H :    0.052638
  13 H :    0.047236
Sum of atomic charges:   -0.0000000

LOEWDIN ATOMIC CHARGES
----------------------
   0 C :    0.227823
   1 H :   -0.063524
   2 H :   -0.067905
   3 H :   -0.067671
   4 C :    0.082452
   5 H :   -0.054815
   6 H :   -0.056361
   7 C :    0.082461
   8 H :   -0.054817
   9 H :   -0.056363
  10 C :    0.227818
  11 H :   -0.063525
  12 H :   -0.067668
  13 H :   -0.067903

  Mayer bond orders larger than 0.100000
B(  0-C ,  1-H ) :   0.9789 B(  0-C ,  2-H ) :   0.9789 B(  0-C ,  3-H ) :   0.9856
B(  0-C ,  4-C ) :   0.9511 B(  4-C ,  5-H ) :   0.9788 B(  4-C ,  6-H ) :   0.9816
B(  4-C ,  7-C ) :   0.9506 B(  7-C ,  8-H ) :   0.9783 B(  7-C ,  9-H ) :   0.9816
B(  7-C , 10-C ) :   0.9513 B( 10-C , 11-H ) :   0.9788 B( 10-C , 12-H ) :   0.9857
B( 10-C , 13-H ) :   0.9791

MP2 TOTAL ENERGY:     -158.303943080 Eh
Dispersion correction           -0.005129233
FINAL SINGLE POINT ENERGY      -158.309072312438

DIPOLE MOMENT
-------------
                                X             Y             Z
Electronic contribution:     -0.00001      -0.00000       0.92878
Nuclear contribution   :     -0.00000      -0.00000      -0.89277
                        -----------------------------------------
Total Dipole Moment    :     -0.00001      -0.00000       0.03601
                        -----------------------------------------
Magnitude (a.u.)       :      0.03601
Magnitude (Debye)      :      0.09154

Rotational constants in cm-1:     0.440728     0.162187     0.137484
Rotational constants in MHz : 13212.687709  4862.244726  4121.676340

                             ****ORCA TERMINATED NORMALLY****
TOTAL RUN TIME: 0 days 0 hours 3 minutes 12 seconds 621 msec
