                         Program Version 4.2.1 -  RELEASE  -
|  1> !DSD-BLYP D3 RIJCOSX def2-QZVPP def2/J def2-QZVPP/C grid5 gridx7 TightSCF NOSOSCF
|  2> %maxcore 5500 #memory in MB
|  3> %pal
|  4>     nprocs 4
|  5> end
|  6> %scf
|  7>    Guess MORead
|  8>    MOInp "05_DLPNO-DSD-BLYP-Expen.gbw"
|  9> end
| 10> * xyzfile 0 1 struc.xyz
| 11>
| 12>                          ****END OF INPUT****

CARTESIAN COORDINATES (ANGSTROEM)
---------------------------------
  C      0.000000    1.833709   -0.650028
  C      0.835431    0.977116    0.293545
  C      0.000000    0.000000    1.118854
  C     -0.835431   -0.977116    0.293545
  C      0.000000   -1.833709   -0.650028
  H      0.613884    2.577986   -1.154810
  H     -1.588542   -0.430944   -0.276794
  H     -1.386124   -1.625973    0.976510
  H     -0.782410    2.361064   -0.103148
  H     -0.482803    1.230780   -1.417723
  H     -0.663702    0.571147    1.773022
  H      0.663702   -0.571147    1.773022
  H      1.588542    0.430944   -0.276794
  H      1.386124    1.625973    0.976510
  H     -0.613884   -2.577986   -1.154810
  H      0.482803   -1.230780   -1.417723
  H      0.782410   -2.361064   -0.103148

 Total Charge           Charge          ....    0
 Multiplicity           Mult            ....    1
 Number of Electrons    NEL             ....   42
 Basis Dimension        Dim             ....  645

ORBITAL ENERGIES
----------------

  NO   OCC          E(Eh)            E(eV)
   0   2.0000     -10.810343      -294.1644
   1   2.0000     -10.810267      -294.1623
   2   2.0000     -10.808947      -294.1264
   3   2.0000     -10.804528      -294.0062
   4   2.0000     -10.804528      -294.0061
   5   2.0000      -0.977342       -26.5948
   6   2.0000      -0.908506       -24.7217
   7   2.0000      -0.829955       -22.5842
   8   2.0000      -0.757970       -20.6254
   9   2.0000      -0.680442       -18.5158
  10   2.0000      -0.574535       -15.6339
  11   2.0000      -0.569413       -15.4945
  12   2.0000      -0.514382       -13.9971
  13   2.0000      -0.503641       -13.7048
  14   2.0000      -0.498310       -13.5597
  15   2.0000      -0.458523       -12.4771
  16   2.0000      -0.446199       -12.1417
  17   2.0000      -0.437940       -11.9170
  18   2.0000      -0.405708       -11.0399
  19   2.0000      -0.399382       -10.8677
  20   2.0000      -0.398193       -10.8354
  21   0.0000       0.073980         2.0131
  22   0.0000       0.088065         2.3964
  23   0.0000       0.091351         2.4858
  24   0.0000       0.094223         2.5639
  25   0.0000       0.122600         3.3361

MULLIKEN ATOMIC CHARGES
-----------------------
   0 C :   -0.166140
   1 C :   -0.063551
   2 C :   -0.095055
   3 C :   -0.063909
   4 C :   -0.163867
   5 H :    0.053212
   6 H :    0.038333
   7 H :    0.043189
   8 H :    0.054087
   9 H :    0.046699
  10 H :    0.042163
  11 H :    0.042169
  12 H :    0.038332
  13 H :    0.042535
  14 H :    0.052219
  15 H :    0.046562
  16 H :    0.053022
Sum of atomic charges:   -0.0000000

LOEWDIN ATOMIC CHARGES
----------------------
   0 C :    0.227817
   1 C :    0.084079
   2 C :    0.094879
   3 C :    0.084073
   4 C :    0.227825
   5 H :   -0.067347
   6 H :   -0.056648
   7 H :   -0.055660
   8 H :   -0.062462
   9 H :   -0.066583
  10 H :   -0.050636
  11 H :   -0.050637
  12 H :   -0.056649
  13 H :   -0.055656
  14 H :   -0.067350
  15 H :   -0.066584
  16 H :   -0.062459

  Mayer bond orders larger than 0.100000
B(  0-C ,  1-C ) :   0.9508 B(  0-C ,  5-H ) :   0.9852 B(  0-C ,  8-H ) :   0.9788
B(  0-C ,  9-H ) :   0.9806 B(  1-C ,  2-C ) :   0.9530 B(  1-C , 12-H ) :   0.9768
B(  1-C , 13-H ) :   0.9808 B(  2-C ,  3-C ) :   0.9523 B(  2-C , 10-H ) :   0.9811
B(  2-C , 11-H ) :   0.9803 B(  3-C ,  4-C ) :   0.9506 B(  3-C ,  6-H ) :   0.9767
B(  3-C ,  7-H ) :   0.9810 B(  4-C , 14-H ) :   0.9853 B(  4-C , 15-H ) :   0.9812
B(  4-C , 16-H ) :   0.9789

MP2 TOTAL ENERGY:     -197.580498637 Eh
Dispersion correction           -0.007119285
FINAL SINGLE POINT ENERGY      -197.587617921897

DIPOLE MOMENT
-------------
                                X             Y             Z
Electronic contribution:     -0.00000       0.00000       1.10217
Nuclear contribution   :     -0.00000       0.00000      -1.07765
                        -----------------------------------------
Total Dipole Moment    :     -0.00000       0.00000       0.02452
                        -----------------------------------------
Magnitude (a.u.)       :      0.02452
Magnitude (Debye)      :      0.06234

Rotational constants in cm-1:     0.253297     0.101041     0.091320
Rotational constants in MHz :  7593.652848  3029.126024  2737.718194

                             ****ORCA TERMINATED NORMALLY****
TOTAL RUN TIME: 0 days 0 hours 11 minutes 51 seconds 891 msec
