                         Program Version 4.2.1 -  RELEASE  -
|  1> !TightPNO DLPNO-DSD-BLYP D3 RIJCOSX def2-QZVPP def2/J def2-QZVPP/C grid5 gridx7 TightSCF NOSOSCF
|  2> %maxcore 5500 #memory in MB
|  3> %pal
|  4>     nprocs 4
|  5> end
|  6> %scf
|  7>    Guess MORead
|  8>    MOInp "02_DLPNO-DSD-BLYP.gbw"
|  9> end
| 10> * xyzfile -1 1 struc.xyz
| 11>
| 12>                          ****END OF INPUT****

CARTESIAN COORDINATES (ANGSTROEM)
---------------------------------
  H     -4.912587   -1.981645    0.534995
  O     -4.198351   -1.470500    0.122066
  C     -4.133261   -1.843263   -1.262377
  H     -5.094820   -1.665690   -1.760008
  H     -3.869753   -2.903941   -1.375136
  C     -3.056086   -1.026869   -1.937438
  H     -2.990149   -1.345649   -2.985633
  O     -3.390903    0.386671   -1.907848
  C     -2.232957    1.171297   -1.709257
  H     -2.148152    1.931153   -2.489140
  N     -2.375603    1.910192   -0.412697
  C     -3.393285    1.645515    0.469760
  H     -4.026548    0.811735    0.191014
  C     -3.578905    2.366506    1.603892
  H     -4.391879    2.133985    2.278532
  C     -2.695057    3.456453    1.924878
  O     -2.761972    4.205283    2.904890
  N     -1.652899    3.619255    0.993792
  H     -0.992861    4.372163    1.170551
  C     -1.433317    2.901143   -0.163379
  O     -0.513809    3.149087   -0.943837
  C     -1.662665   -1.113913   -1.309602
  H     -1.717508   -1.198997   -0.220814
  C     -1.030086    0.215376   -1.745174
  H     -0.204623    0.548361   -1.111008
  O     -0.608269    0.130260   -3.111104
  H     -0.482432   -0.821033   -3.297227
  O     -0.986168   -2.247824   -1.861480
  P      0.031863   -3.161535   -0.925713
  O      0.352019   -4.342949   -1.787766
  O     -0.528232   -3.277952    0.457190
  O      1.347945   -2.204927   -0.753649
  C      2.106846   -1.777877   -1.901370
  H      1.467913   -1.209161   -2.583066
  H      2.514822   -2.646732   -2.430508
  C      3.234149   -0.889302   -1.412436
  H      3.796595   -0.526592   -2.278707
  O      2.663837    0.268858   -0.725773
  C      3.155551    0.341327    0.609535
  H      3.928781    1.105980    0.712447
  N      2.061381    0.753103    1.495934
  C      0.923085   -0.018260    1.564204
  H      0.919221   -0.875147    0.897486
  C     -0.113723    0.271471    2.384762
  H     -0.990484   -0.361189    2.420180
  C     -0.045641    1.426997    3.245920
  O     -0.901416    1.796376    4.053746
  N      1.133550    2.175383    3.086488
  H      1.226497    3.006692    3.664960
  C      2.204381    1.916617    2.254510
  O      3.199253    2.637173    2.215863
  C      4.195983   -1.556147   -0.418590
  H      4.178200   -2.645158   -0.492688
  C      3.705435   -1.060916    0.946926
  H      2.891187   -1.701237    1.294875
  O      4.713272   -1.052354    1.940837
  H      5.547919   -0.897744    1.450763
  O      5.541318   -1.066329   -0.581846
  H      6.073398   -1.763577   -0.995724

 Total Charge           Charge          ....   -1
 Multiplicity           Mult            ....    1
 Number of Electrons    NEL             ....  286
 Basis Dimension        Dim             .... 2782

ORBITAL ENERGIES
----------------

  NO   OCC          E(Eh)            E(eV)
   0   2.0000     -78.808266     -2144.4819
   1   2.0000     -19.971236      -543.4450
   2   2.0000     -19.954404      -542.9869
   3   2.0000     -19.949691      -542.8587
   4   2.0000     -19.944514      -542.7178
   5   2.0000     -19.940691      -542.6138
   6   2.0000     -19.929889      -542.3198
   7   2.0000     -19.924204      -542.1652
   8   2.0000     -19.921515      -542.0920
   9   2.0000     -19.906403      -541.6808
  10   2.0000     -19.904154      -541.6196
  11   2.0000     -19.894404      -541.3542
  12   2.0000     -19.893466      -541.3287
  13   2.0000     -19.812146      -539.1159
  14   2.0000     -19.808409      -539.0142
  15   2.0000     -15.072927      -410.1552
  16   2.0000     -15.069099      -410.0510
  17   2.0000     -15.059006      -409.7764
  18   2.0000     -15.057180      -409.7267
  19   2.0000     -10.912583      -296.9465
  20   2.0000     -10.912276      -296.9381
  21   2.0000     -10.872033      -295.8431
  22   2.0000     -10.871069      -295.8168
  23   2.0000     -10.855850      -295.4027
  24   2.0000     -10.846997      -295.1618
  25   2.0000     -10.827251      -294.6245
  26   2.0000     -10.821634      -294.4716
  27   2.0000     -10.816618      -294.3351
  28   2.0000     -10.815779      -294.3123
  29   2.0000     -10.813205      -294.2423
  30   2.0000     -10.813099      -294.2394
  31   2.0000     -10.811387      -294.1928
  32   2.0000     -10.803478      -293.9776
  33   2.0000     -10.802966      -293.9637
  34   2.0000     -10.800381      -293.8933
  35   2.0000     -10.750858      -292.5457
  36   2.0000     -10.746524      -292.4278
  37   2.0000      -7.073053      -192.4675
  38   2.0000      -5.076019      -138.1255
  39   2.0000      -5.074401      -138.0815
  40   2.0000      -5.071651      -138.0066
  41   2.0000      -1.215794       -33.0834
  42   2.0000      -1.211652       -32.9707
  43   2.0000      -1.200200       -32.6591
  44   2.0000      -1.198348       -32.6087
  45   2.0000      -1.179868       -32.1058
  46   2.0000      -1.171812       -31.8866
  47   2.0000      -1.164796       -31.6957
  48   2.0000      -1.161804       -31.6143
  49   2.0000      -1.159544       -31.5528
  50   2.0000      -1.156150       -31.4604
  51   2.0000      -1.148941       -31.2643
  52   2.0000      -1.126489       -30.6533
  53   2.0000      -1.089568       -29.6487
  54   2.0000      -1.088708       -29.6252
  55   2.0000      -1.035438       -28.1757
  56   2.0000      -1.034246       -28.1433
  57   2.0000      -1.031234       -28.0613
  58   2.0000      -0.990783       -26.9606
  59   2.0000      -0.890910       -24.2429
  60   2.0000      -0.887126       -24.1399
  61   2.0000      -0.881081       -23.9754
  62   2.0000      -0.872713       -23.7477
  63   2.0000      -0.845375       -23.0038
  64   2.0000      -0.844634       -22.9836
  65   2.0000      -0.765034       -20.8176
  66   2.0000      -0.762683       -20.7536
  67   2.0000      -0.749926       -20.4065
  68   2.0000      -0.747724       -20.3466
  69   2.0000      -0.706541       -19.2260
  70   2.0000      -0.704958       -19.1829
  71   2.0000      -0.672809       -18.3081
  72   2.0000      -0.667893       -18.1743
  73   2.0000      -0.658237       -17.9116
  74   2.0000      -0.649074       -17.6622
  75   2.0000      -0.614213       -16.7136
  76   2.0000      -0.612284       -16.6611
  77   2.0000      -0.601857       -16.3774
  78   2.0000      -0.600351       -16.3364
  79   2.0000      -0.587808       -15.9951
  80   2.0000      -0.584669       -15.9097
  81   2.0000      -0.579257       -15.7624
  82   2.0000      -0.562709       -15.3121
  83   2.0000      -0.551855       -15.0167
  84   2.0000      -0.550201       -14.9717
  85   2.0000      -0.544260       -14.8101
  86   2.0000      -0.538490       -14.6531
  87   2.0000      -0.526171       -14.3178
  88   2.0000      -0.522110       -14.2073
  89   2.0000      -0.516743       -14.0613
  90   2.0000      -0.510849       -13.9009
  91   2.0000      -0.507686       -13.8148
  92   2.0000      -0.499869       -13.6021
  93   2.0000      -0.498462       -13.5638
  94   2.0000      -0.488229       -13.2854
  95   2.0000      -0.482533       -13.1304
  96   2.0000      -0.481886       -13.1128
  97   2.0000      -0.472814       -12.8659
  98   2.0000      -0.469728       -12.7820
  99   2.0000      -0.467975       -12.7343
 100   2.0000      -0.461059       -12.5461
 101   2.0000      -0.453306       -12.3351
 102   2.0000      -0.450054       -12.2466
 103   2.0000      -0.447059       -12.1651
 104   2.0000      -0.443551       -12.0696
 105   2.0000      -0.442249       -12.0342
 106   2.0000      -0.437643       -11.9089
 107   2.0000      -0.430252       -11.7078
 108   2.0000      -0.426254       -11.5990
 109   2.0000      -0.420949       -11.4546
 110   2.0000      -0.414234       -11.2719
 111   2.0000      -0.407995       -11.1021
 112   2.0000      -0.404935       -11.0188
 113   2.0000      -0.401011       -10.9121
 114   2.0000      -0.395140       -10.7523
 115   2.0000      -0.391043       -10.6408
 116   2.0000      -0.389914       -10.6101
 117   2.0000      -0.374805       -10.1990
 118   2.0000      -0.373294       -10.1579
 119   2.0000      -0.362859        -9.8739
 120   2.0000      -0.360886        -9.8202
 121   2.0000      -0.355619        -9.6769
 122   2.0000      -0.341168        -9.2836
 123   2.0000      -0.332601        -9.0505
 124   2.0000      -0.329816        -8.9747
 125   2.0000      -0.324240        -8.8230
 126   2.0000      -0.321784        -8.7562
 127   2.0000      -0.321281        -8.7425
 128   2.0000      -0.314010        -8.5446
 129   2.0000      -0.310098        -8.4382
 130   2.0000      -0.306588        -8.3427
 131   2.0000      -0.296980        -8.0812
 132   2.0000      -0.295205        -8.0329
 133   2.0000      -0.291587        -7.9345
 134   2.0000      -0.286549        -7.7974
 135   2.0000      -0.286251        -7.7893
 136   2.0000      -0.284505        -7.7418
 137   2.0000      -0.279829        -7.6145
 138   2.0000      -0.263486        -7.1698
 139   2.0000      -0.244570        -6.6551
 140   2.0000      -0.231210        -6.2915
 141   2.0000      -0.223874        -6.0919
 142   2.0000      -0.223341        -6.0774
 143   0.0000       0.113411         3.0861
 144   0.0000       0.123935         3.3724
 145   0.0000       0.125881         3.4254
 146   0.0000       0.127634         3.4731
 147   0.0000       0.149407         4.0656

MULLIKEN ATOMIC CHARGES
-----------------------
   0 H :    0.225639
   1 O :   -0.469598
   2 C :    0.085311
   3 H :    0.046146
   4 H :    0.096567
   5 C :    0.232744
   6 H :    0.031171
   7 O :   -0.547210
   8 C :    0.465052
   9 H :    0.091032
  10 N :   -0.352906
  11 C :    0.113844
  12 H :    0.157780
  13 C :   -0.128706
  14 H :    0.096764
  15 C :    0.316713
  16 O :   -0.461588
  17 N :   -0.354490
  18 H :    0.257505
  19 C :    0.438642
  20 O :   -0.470901
  21 C :    0.309806
  22 H :    0.096040
  23 C :    0.135876
  24 H :    0.107745
  25 O :   -0.523045
  26 H :    0.270763
  27 O :   -0.597107
  28 P :    1.120243
  29 O :   -0.745248
  30 O :   -0.733922
  31 O :   -0.563022
  32 C :    0.172857
  33 H :    0.043681
  34 H :    0.077246
  35 C :    0.298953
  36 H :    0.036440
  37 O :   -0.572292
  38 C :    0.473635
  39 H :    0.095837
  40 N :   -0.307348
  41 C :    0.087024
  42 H :    0.204756
  43 C :   -0.149441
  44 H :    0.125578
  45 C :    0.315113
  46 O :   -0.440368
  47 N :   -0.366455
  48 H :    0.253585
  49 C :    0.395991
  50 O :   -0.476951
  51 C :    0.124995
  52 H :    0.066870
  53 C :    0.142348
  54 H :    0.144563
  55 O :   -0.499214
  56 H :    0.262563
  57 O :   -0.514119
  58 H :    0.256512
Sum of atomic charges:   -1.0000000

LOEWDIN ATOMIC CHARGES
----------------------
   0 H :   -0.359542
   1 O :    0.610998
   2 C :   -0.072509
   3 H :   -0.062269
   4 H :   -0.042506
   5 C :   -0.215460
   6 H :   -0.032381
   7 O :    0.474431
   8 C :   -0.275622
   9 H :   -0.038222
  10 N :    0.417976
  11 C :   -0.003460
  12 H :   -0.060003
  13 C :    0.037222
  14 H :   -0.061650
  15 C :   -0.619619
  16 O :    0.245668
  17 N :    0.573712
  18 H :   -0.125404
  19 C :   -0.725950
  20 O :    0.253903
  21 C :   -0.244964
  22 H :   -0.038574
  23 C :   -0.213293
  24 H :   -0.047027
  25 O :    0.612795
  26 H :   -0.366580
  27 O :    0.348961
  28 P :   -0.816255
  29 O :   -0.099651
  30 O :   -0.087421
  31 O :    0.335575
  32 C :   -0.093487
  33 H :   -0.054740
  34 H :   -0.049216
  35 C :   -0.198726
  36 H :   -0.042775
  37 O :    0.461432
  38 C :   -0.284753
  39 H :   -0.040746
  40 N :    0.420999
  41 C :    0.005408
  42 H :   -0.052316
  43 C :    0.044075
  44 H :   -0.053851
  45 C :   -0.623987
  46 O :    0.260695
  47 N :    0.570835
  48 H :   -0.124918
  49 C :   -0.706338
  50 O :    0.239709
  51 C :   -0.187339
  52 H :   -0.042408
  53 C :   -0.227834
  54 H :   -0.034363
  55 O :    0.603731
  56 H :   -0.360831
  57 O :    0.625635
  58 H :   -0.356768

  Mayer bond orders larger than 0.100000
B(  0-H ,  1-O ) :   0.9893 B(  1-O ,  2-C ) :   0.9215 B(  2-C ,  3-H ) :   0.9668
B(  2-C ,  4-H ) :   0.9702 B(  2-C ,  5-C ) :   0.9448 B(  5-C ,  6-H ) :   0.9734
B(  5-C ,  7-O ) :   0.8514 B(  5-C , 21-C ) :   0.8756 B(  7-O ,  8-C ) :   0.9620
B(  8-C ,  9-H ) :   0.9485 B(  8-C , 10-N ) :   0.7389 B(  8-C , 23-C ) :   0.8925
B( 10-N , 11-C ) :   1.1110 B( 10-N , 19-C ) :   1.1589 B( 11-C , 12-H ) :   0.9420
B( 11-C , 13-C ) :   1.5478 B( 13-C , 14-H ) :   0.9824 B( 13-C , 15-C ) :   1.0589
B( 15-C , 16-O ) :   1.9554 B( 15-C , 17-N ) :   1.0611 B( 17-N , 18-H ) :   0.8973
B( 17-N , 19-C ) :   1.1493 B( 19-C , 20-O ) :   1.9370 B( 21-C , 22-H ) :   0.9273
B( 21-C , 23-C ) :   0.9250 B( 21-C , 27-O ) :   0.8627 B( 23-C , 24-H ) :   0.9676
B( 23-C , 25-O ) :   0.9375 B( 25-O , 26-H ) :   0.9375 B( 27-O , 28-P ) :   0.8501
B( 28-P , 29-O ) :   1.9550 B( 28-P , 30-O ) :   1.8791 B( 28-P , 31-O ) :   0.8688
B( 31-O , 32-C ) :   0.8263 B( 32-C , 33-H ) :   0.9602 B( 32-C , 34-H ) :   0.9700
B( 32-C , 35-C ) :   0.9094 B( 35-C , 36-H ) :   0.9774 B( 35-C , 37-O ) :   0.8469
B( 35-C , 51-C ) :   0.9286 B( 37-O , 38-C ) :   0.9324 B( 38-C , 39-H ) :   0.9469
B( 38-C , 40-N ) :   0.7659 B( 38-C , 53-C ) :   0.9010 B( 40-N , 41-C ) :   1.1044
B( 40-N , 49-C ) :   1.1264 B( 41-C , 42-H ) :   0.9152 B( 41-C , 43-C ) :   1.5563
B( 43-C , 44-H ) :   0.9620 B( 43-C , 45-C ) :   1.0396 B( 45-C , 46-O ) :   1.9929
B( 45-C , 47-N ) :   1.0533 B( 47-N , 48-H ) :   0.9046 B( 47-N , 49-C ) :   1.1683
B( 49-C , 50-O ) :   1.9330 B( 51-C , 52-H ) :   0.9694 B( 51-C , 53-C ) :   0.9395
B( 51-C , 57-O ) :   0.9442 B( 53-C , 54-H ) :   0.9665 B( 53-C , 55-O ) :   1.0039
B( 55-O , 56-H ) :   0.9410 B( 57-O , 58-H ) :   0.9740

MP2 TOTAL ENERGY:    -2311.662186935 Eh
Dispersion correction           -0.053744134
FINAL SINGLE POINT ENERGY     -2311.715931069352

DIPOLE MOMENT
-------------
                                X             Y             Z
Electronic contribution:     -0.27112       7.12884       6.91173
Nuclear contribution   :      0.46111      -6.71402      -8.79195
                        -----------------------------------------
Total Dipole Moment    :      0.18999       0.41482      -1.88022
                        -----------------------------------------
Magnitude (a.u.)       :      1.93479
Magnitude (Debye)      :      4.91784

Rotational constants in cm-1:     0.004146     0.003380     0.002301
Rotational constants in MHz :   124.282266   101.338553    68.991226

                             ****ORCA TERMINATED NORMALLY****
TOTAL RUN TIME: 0 days 11 hours 51 minutes 16 seconds 469 msec
